HEADER
"PSFversion" "1.00"
"M8v" "m8v"
"M3v" "m3v"
"M2v" "m2v"
"M1v" "m1v"
"M0v" "m0v"
"M10v" "m10v"
"M8n M3n M2n M1n M0n" "tsmcN65_nch_hspiceD"
"M9v" "m9v"
"M7v" "m7v"
"M6v" "m6v"
"M5v" "m5v"
"M4v" "m4v"
"M10n M9n M7n M6n M5n M4n" "tsmcN65_pch_hspiceD"
