HEADER
"PSFversion" "1.00"
"__NEXT_FILE__" "torus_xbar_1b"
