HEADER
"PSFversion" "1.00"
"M4v" "m4v"
"M3v" "m3v"
"M2v" "m2v"
"M1v" "m1v"
"M0v" "m0v"
"M4n M3n M2n M1n M0n" "tsmcN65_nch_hspiceD"
